/*--------------------------------*- C++ -*----------------------------------*\
  =========                 |
  \\      /  F ield         | OpenFOAM: The Open Source CFD Toolbox
   \\    /   O peration     | Website:  https://openfoam.org
    \\  /    A nd           | Version:  10
     \\/     M anipulation  |
\*---------------------------------------------------------------------------*/
FoamFile
{
    version     2.0;
    format      ascii;    
    location    "0";
    class       volScalarField;
    object      epsilon;
}
// * * * * * * * * * * * * * * * * * * * * * * * * * * * * * * * * * * * * * //


dimensions      [0 2 -3 0 0 0 0];

internalField   uniform 0.01;

boundaryField
{
    inlet
    {
    }

    outlet
    {
    }

    ground 
    {
    }
    
    top    
    {
    }

    front    
    {
    }
    
    back    
    {
    }
    
    building 
    {
    }
}

// ************************************************************************* //
